"NAME","FORMULA","SOURCE","PURITY","N (NO3-)","N (NH4+)","P","K","MG","CA","S","B","FE","ZN","MN","CU","MO","NA","SI","CL","ISLIQUID","DENSITY","COST","TYPE"
"ICL Micromax Premium Trace Elements  (Micros)","Micros",,"1","0","0","0","0","0","0","0","0,2","15","1","2,5","1","0,04","0","0","0","0","1","5,97","Commercial"
"ICL Micromax WS TE-Mix (Micros)","Micros",,"1","0","0","0","0","0","0","0","0,7","7,8","1,3","2,6","0,5","0,32","0","0","0","0","1","17,22","Commercial"
"Microfol Combi (Micros)","Micros",,"1","0","0","0","0","5,427","0","9","0,5","4","1,5","4","1,5","0,1","0","0","0","0","1","23,78","Commercial"
"Advanced Hydroponics Grow (Hydro,Kokos,Erde)","02.04.07",,"1,17","1,8","0,6","1,92016","6,14274","0,4824","0","0,88","0","0","0","0","0","0","0","0","0","1","1","14,95","Commercial"
"Advanced Hydroponics Bloom (Hydro,Kokos,Erde)","0-5-5",,"1,17","0,3","0,4","2,48748","4,39953","1,2663","0","2,24","0","0","0","0","0","0","0","0","0","1","1","14,9","Commercial"
"Advanced Hydroponics Micro (Hydro,Kokos,Erde)","05.06.06",,"1,2","5,3","0,25","0","4,9806","0","4,61175","0","0","0","0","0","0","0","0","0","0","1","1","14,9","Commercial"
"ICL Solinure Weiss (Hydro,Kokos,Erde)","5-5-30+3MgO+TE",,"1","11,6","3,4","2,182","24,903","1,809","0","0","0,02","0,07","0,02","0,04","0,009","0,004","0","0","0","0","1","2,65","Commercial"
"Yara KRISTALON WEISSMARKE (Hydro,Kokos,Erde)","5-5-30 (+3+2)",,"1","11,3","3,7","2,182","24,903","1,809","0","2","0,025","0,07","0,025","0,04","0,01","0,004","0","0","0","0","1","3,14","Commercial"
"Plagron Cocos A (Kokos)","4-0-1",,"1,16","3,1","0,6","0","2,32428","0","3,003","0","0","0,025","0","0","0","0","0","0","0","1","1","6,45","Commercial"
"Plagron Cocos B (Kokos)","01.04.02",,"1,11","0,3","0","1,44012","1,74321","1,0854","0","1,08","0,012","0","0,009","0,024","0,002","0,0005","0","0","0","1","1","6,45","Commercial"
"Canna Coco A (Kokos)","05.04.03",,"1,17","3,8","0","0","0,58107","0,3618","4,5054","0","0","0,02","0","0","0","0","0","0","0","1","1","7,45","Commercial"
"Canna Coco B (Kokos)","05.04.03",,"1,1","0,7","0,1","1,70196","1,82622","1,0854","0","0,72","0,007","0","0,007","0,012","0,001","0,002","0","0","0","1","1","7,45","Commercial"
"Canna Hydro Vega A (Drain to Waste)","05.02.07",,"1,14","3,7","0,4","0","2,57331","0","2,7885","0","0","0,016","0","0","0","0","0","0","0","1","1","7,72","Commercial"
"Canna Hydro Vega B (Drain to Waste)","05.02.07",,"1,09","1,3","0","0,82916","3,07137","0,7236","0","0,7","0,007","0","0","0,012","0,001","0,002","0","0","0","1","1","7,72","Commercial"
"Canna Hydro Flores A (Drain to Waste)","05.03.08",,"1,11","3,1","0,3","0","2,57331","0","2,2165","0","0","0,017","0","0","0","0","0","0","0","1","1","7,72","Commercial"
"Canna Hydro Flores B (Drain to Waste)","05.03.08",,"1,12","1,3","0","1,17828","4,48254","0,6633","0","1,1","0,006","0","0","0,012","0,001","0,002","0","0","0","1","1","7,72","Commercial"
"Canna PH - Minus (Hydro,Kokos,Erde)","0-59-0",,"1,46","0","0","22,64916","0","0","0","0","0","0","0","0","0","0","0","0","0","1","1","16,9","Commercial"
"Terra Aquatica PH + Plus (Hydro,Kokos,Erde)","0-0-10",,"1,16","0","0","0","8,301","0","0","0","0","0","0","0","0","0","0","0,2342","0","1","1","18,95","Commercial"
"Terra Aquatica PH - Minus (Hydro,Kokos,Erde)","03.10.00",,"1,1","3","0","6,72056","0","0","0","0","0","0","0","0","0","0","0","0","0","1","1","15,9","Commercial"
"Canna CalMag Agent (Hydro,Kokos,Erde)","6-0-0",,"1,25","5","0,9","0","0","1,4472","4,862","0","0","0","0","0","0","0","0","0","0","1","1","13,9","Commercial"